 Gaussian 03, Revision C.02,
 Gaussian 03:  IA32L-G03RevC.02 12-Jun-2004

 ----------------------------------
 # Opt HF/6-31g* Pop=MK iop(6/33=2)
 ----------------------------------

 -----------------------------------------------------------
 For resp COMPLEX (SERINE PROTEASE/INHIBITOR) 26-JUN-96 1CGH
 -----------------------------------------------------------
 Symbolic Z-matrix:
 Charge = -1 Multiplicity = 1

 SCF Done:  E(RHF) =  -1572.30766214     A.U. after   15 cycles
 SCF Done:  E(RHF) =  -1572.49107233     A.U. after   13 cycles
 SCF Done:  E(RHF) =  -1572.63475169     A.U. after   13 cycles
 SCF Done:  E(RHF) =  -1572.68460831     A.U. after   13 cycles
 SCF Done:  E(RHF) =  -1572.71284461     A.U. after   13 cycles
 SCF Done:  E(RHF) =  -1572.70777481     A.U. after   15 cycles
 SCF Done:  E(RHF) =  -1572.72645584     A.U. after   13 cycles
 SCF Done:  E(RHF) =  -1572.72846393     A.U. after   13 cycles
 SCF Done:  E(RHF) =  -1572.72996502     A.U. after   13 cycles
 SCF Done:  E(RHF) =  -1572.73193423     A.U. after   13 cycles
 SCF Done:  E(RHF) =  -1572.74079469     A.U. after   10 cycles
 SCF Done:  E(RHF) =  -1572.74079944     A.U. after   10 cycles
 SCF Done:  E(RHF) =  -1572.74080145     A.U. after    9 cycles
 SCF Done:  E(RHF) =  -1572.74080321     A.U. after    9 cycles
 SCF Done:  E(RHF) =  -1572.74080428     A.U. after    9 cycles
 SCF Done:  E(RHF) =  -1572.74080495     A.U. after    9 cycles
 SCF Done:  E(RHF) =  -1572.74080522     A.U. after    8 cycles
 SCF Done:  E(RHF) =  -1572.74080537     A.U. after    8 cycles
 SCF Done:  E(RHF) =  -1572.74080544     A.U. after    7 cycles
 SCF Done:  E(RHF) =  -1572.74080548     A.U. after    7 cycles
 Optimization completed.
    -- Stationary point found.

                         Standard orientation:
 ---------------------------------------------------------------------
 Center     Atomic     Atomic              Coordinates (Angstroms)
 Number     Number      Type              X           Y           Z
 ---------------------------------------------------------------------
    1          6             0       -2.211756    2.674330    1.899811
    2          6             0       -2.752686    2.001999    0.656728
    3          8             0       -3.265427    2.654641   -0.232836
    4          7             0       -2.658232    0.667825    0.642352
    5          6             0       -2.886079   -0.131635   -0.551915
    6          6             0       -4.371770   -0.454847   -0.760140
    7          8             0       -4.792771   -1.584792   -0.747066
    8          6             0       -2.074338   -1.423707   -0.454640
    9          8             0       -0.708654   -1.121975   -0.327537
   10          1             0       -2.048192    0.248786    1.330798
   11          7             0       -5.159577    0.608973   -0.997507
   12          6             0       -6.586874    0.462446   -1.132429
   13          1             0       -4.753941    1.517610   -0.911032
   14          6             0        3.255533   -3.359936   -1.646976
   15          6             0        3.200495   -2.375475   -0.495350
   16          8             0        4.028451   -2.394620    0.379490
   17          7             0        2.169728   -1.506132   -0.548565
   18          6             0        1.700958   -0.754875    0.608784
   19         15             0        0.054786   -1.416429    1.114458
   20          8             0       -0.558931   -0.506363    2.124145
   21          8             0        0.138497   -2.869562    1.329060
   22          6             0        1.666159    0.756818    0.353244
   23          6             0        2.966438    1.427854   -0.057382
   24          6             0        4.221080    0.966965    0.329276
   25          6             0        2.907894    2.595277   -0.815577
   26          6             0        5.371071    1.655846   -0.026777
   27          6             0        4.053898    3.287292   -1.168925
   28          6             0        5.296451    2.819460   -0.773336
   29          1             0        1.469652   -1.687550   -1.233632
   30          1             0       -3.049016    2.962641    2.528121
   31          1             0       -2.546934    0.433518   -1.414190
   32          1             0       -2.426751   -2.025269    0.371860
   33          1             0       -2.219826   -2.001960   -1.356478
   34          1             0       -7.012071    1.429939   -1.368452
   35          1             0       -6.828524   -0.229575   -1.929603
   36          1             0        2.921398   -2.919173   -2.580028
   37          1             0        0.920581    0.961876   -0.407444
   38          1             0        4.313130    0.053372    0.884232
   39          1             0        1.948308    2.967527   -1.132707
   40          1             0        6.329505    1.273105    0.279213
   41          1             0        3.975503    4.187099   -1.755184
   42          1             0        6.191902    3.350051   -1.048149
   43          1             0        1.302588    1.224659    1.262784
   44          1             0        2.372257   -0.981603    1.424437
   45          1             0       -7.043883    0.093104   -0.219762
   46          1             0       -1.693582    3.577878    1.604118
   47          1             0       -1.549365    2.030338    2.461778
   48          1             0        2.605639   -4.197857   -1.413993
   49          1             0        4.268229   -3.722260   -1.755939
 ---------------------------------------------------------------------

 The electronic state is 1-A.
 Alpha  occ. eigenvalues --  -79.89378 -20.44247 -20.42941 -20.42771 -20.41452
 Alpha  occ. eigenvalues --  -20.35524 -20.34038 -15.47921 -15.47396 -15.46943
 Alpha  occ. eigenvalues --  -11.25221 -11.24515 -11.24075 -11.17308 -11.17213
 Alpha  occ. eigenvalues --  -11.17193 -11.14324 -11.14248 -11.14067 -11.14029
 Alpha  occ. eigenvalues --  -11.13931 -11.13501 -11.13413 -11.13219 -11.12750
 Alpha  occ. eigenvalues --  -11.11914  -7.42166  -5.32022  -5.31901  -5.31847
 Alpha  occ. eigenvalues --   -1.29735  -1.28932  -1.28010  -1.26392  -1.15929
 Alpha  occ. eigenvalues --   -1.13986  -1.12820  -1.12235  -1.10506  -1.06144
 Alpha  occ. eigenvalues --   -0.96180  -0.94627  -0.92100  -0.91306  -0.88773
 Alpha  occ. eigenvalues --   -0.87094  -0.86311  -0.77826  -0.75922  -0.73140
 Alpha  occ. eigenvalues --   -0.70118  -0.69821  -0.68041  -0.67657  -0.63686
 Alpha  occ. eigenvalues --   -0.61229  -0.60231  -0.59116  -0.58087  -0.56651
 Alpha  occ. eigenvalues --   -0.55594  -0.54836  -0.54116  -0.53830  -0.52856
 Alpha  occ. eigenvalues --   -0.52211  -0.51640  -0.51290  -0.50066  -0.49405
 Alpha  occ. eigenvalues --   -0.49050  -0.48684  -0.48508  -0.47560  -0.47144
 Alpha  occ. eigenvalues --   -0.46613  -0.46012  -0.45702  -0.44650  -0.43351
 Alpha  occ. eigenvalues --   -0.42537  -0.42229  -0.41122  -0.41017  -0.40421
 Alpha  occ. eigenvalues --   -0.39491  -0.38137  -0.38017  -0.37287  -0.35349
 Alpha  occ. eigenvalues --   -0.33506  -0.32850  -0.32000  -0.31399  -0.30659
 Alpha  occ. eigenvalues --   -0.29100  -0.28800  -0.28299  -0.26414  -0.25179
 Alpha  occ. eigenvalues --   -0.24126  -0.22905
 Alpha virt. eigenvalues --    0.23670   0.24008   0.28511   0.30422   0.30854
 Alpha virt. eigenvalues --    0.32597   0.33265   0.33696   0.34447   0.36268
 Alpha virt. eigenvalues --    0.37269   0.37866   0.38131   0.38920   0.39269

 Mulliken atomic charges:
              1
     1  C   -0.589209
     2  C    0.752049
     3  O   -0.683699
     4  N   -0.840189
     5  C   -0.070520
     6  C    0.771275
     7  O   -0.640578
     8  C    0.017043
     9  O   -0.816805
    10  H    0.506215
    11  N   -0.825195
    12  C   -0.258490
    13  H    0.454556
    14  C   -0.587332
    15  C    0.773063
    16  O   -0.637024
    17  N   -0.784747
    18  C   -0.237024
    19  P    1.531225
    20  O   -0.869512
    21  O   -0.779282
    22  C   -0.351265
    23  C    0.050678
    24  C   -0.236479
    25  C   -0.233804
    26  C   -0.203797
    27  C   -0.196727
    28  C   -0.212913
    29  H    0.394442
    30  H    0.177286
    31  H    0.203909
    32  H    0.203996
    33  H    0.171206
    34  H    0.153785
    35  H    0.174943
    36  H    0.163454
    37  H    0.177564
    38  H    0.253666
    39  H    0.188006
    40  H    0.184473
    41  H    0.176107
    42  H    0.172891
    43  H    0.202700
    44  H    0.225465
    45  H    0.166447
    46  H    0.183420
    47  H    0.232500
    48  H    0.206174
    49  H    0.186052
 Sum of Mulliken charges=  -1.00000

 Dipole moment (field-independent basis, Debye):
    X=     0.1899    Y=     6.5791    Z=    -5.3769  Tot=     8.4989
 Quadrupole moment (field-independent basis, Debye-Ang):
   XX=  -208.6547   YY=  -196.6547   ZZ=  -172.2912
   XY=    -1.4618   XZ=    -7.4816   YZ=    16.5559

 1\1\GINC-LC5\FOpt\RHF\6-31G(d)\C16H23N3O6P1(1-)\VVV900\22-Jun-2006\0\\
 # OPT HF/6-31G* POP=MK IOP(6/33=2)\\For resp COMPLEX (SERINE PROTEASE/
 INHIBITOR) 26-JUN-96 1CGH\\-1,1\C,-0.3607390178,-3.7466517126,-1.21887
 41095\C,0.8542243409,-3.3336266145,-0.4168987831\O,1.9744993392,-3.641
 4915701,-0.7779697995\N,0.5931650045,-2.6591808491,0.70832053\C,1.6175
 410353,-1.9652094924,1.4740765452\C,2.336555817,-2.8959151916,2.459929
 8872\O,2.2912469706,-2.728387998,3.653273746\C,0.9791215877,-0.7954857
 038,2.2237448522\O,0.3769334277,0.0857930192,1.3110528179\H,-0.3430685

 Normal termination of Gaussian 03 at Thu Jun 22 15:54:53 2006.
